<?xml version="1.0"?>
<VTKFile type="UnstructuredGrid" version="0.1" byte_order="BigEndian">
<UnstructuredGrid GhostLevel="0">
<Piece NumberOfPoints="2892" NumberOfCells="1953" ><Points>
<DataArray type="Float32" NumberOfComponents="3" format="ascii">
0	10500	400	0	10000	400	500	10500	400	500	10000	400	0	10500	220	0	10000	220	500	10500	220	500	10000	220	1000	10500	400	1000	10000	400	1000	10500	220	1000	10000	220	1500	10500	400	1500	10000	400	1500	10500	220	1500	10000	220	2000	10500	400	2000	10000	400	2000	10500	220	2000	10000	220	2500	10500	400	2500	10000	400	2500	10500	220	2500	10000	220	3000	10500	400	3000	10000	400	3000	10500	220	3000	10000	220	3500	10500	400	3500	10000	400	3500	10500	220	3500	10000	220	4000	10500	400	4000	10000	400	4000	10500	220	4000	10000	220	4500	10500	400	4500	10000	400	4500	10500	220	4500	10000	220	5000	10500	400	5000	10000	400	5000	10500	220	5000	10000	220	5500	10500	400	5500	10000	400	5500	10500	220	5500	10000	220	6000	10500	400	6000	10000	400	6000	10500	220	6000	10000	220	6500	10500	400	6500	10000	400	6500	10500	220	6500	10000	220	7000	10500	400	7000	10000	400	7000	10500	220	7000	10000	220	7500	10500	400	7500	10000	400	7500	10500	220	7500	10000	220	8000	10500	400	8000	10000	400	8000	10500	220	8000	10000	220	8500	10500	400	8500	10000	400	8500	10500	220	8500	10000	220	9000	10500	400	9000	10000	400	9000	10500	220	9000	10000	220	9500	10500	400	9500	10000	400	9500	10500	220	9500	10000	220	10000	10500	400	10000	10000	400	10000	10500	220	10000	10000	220	0	9500	400	500	9500	400	0	9500	220	500	9500	220	1000	9500	400	1000	9500	220	1500	9500	400	1500	9500	220	2000	9500	400	2000	9500	220	2500	9500	400	2500	9500	220	3000	9500	400	3000	9500	220	3500	9500	400	3500	9500	220	4000	9500	400	4000	9500	220	4500	9500	400	4500	9500	220	5000	9500	400	5000	9500	220	5500	9500	400	5500	9500	220	6000	9500	400	6000	9500	220	6500	9500	400	6500	9500	220	7000	9500	400	7000	9500	220	7500	9500	400	7500	9500	220	8000	9500	400	8000	9500	220	8500	9500	400	8500	9500	220	9000	9500	400	9000	9500	220	9500	9500	400	9500	9500	220	10000	9500	400	10000	9500	220	0	9000	400	500	9000	400	0	9000	220	500	9000	220	1000	9000	400	1000	9000	220	1500	9000	400	1500	9000	220	2000	9000	400	2000	9000	220	2500	9000	400	2500	9000	220	3000	9000	400	3000	9000	220	3500	9000	400	3500	9000	220	4000	9000	400	4000	9000	220	4500	9000	400	4500	9000	220	5000	9000	400	5000	9000	220	5500	9000	400	5500	9000	220	6000	9000	400	6000	9000	220	6500	9000	400	6500	9000	220	7000	9000	400	7000	9000	220	7500	9000	400	7500	9000	220	8000	9000	400	8000	9000	220	8500	9000	400	8500	9000	220	9000	9000	400	9000	9000	220	9500	9000	400	9500	9000	220	10000	9000	400	10000	9000	220	0	8500	400	500	8500	400	0	8500	220	500	8500	220	1000	8500	400	1000	8500	220	1500	8500	400	1500	8500	220	2000	8500	400	2000	8500	220	2500	8500	400	2500	8500	220	3000	8500	400	3000	8500	220	3500	8500	400	3500	8500	220	4000	8500	400	4000	8500	220	4500	8500	400	4500	8500	220	5000	8500	400	5000	8500	220	5500	8500	400	5500	8500	220	6000	8500	400	6000	8500	220	6500	8500	400	6500	8500	220	7000	8500	400	7000	8500	220	7500	8500	400	7500	8500	220	8000	8500	400	8000	8500	220	8500	8500	400	8500	8500	220	9000	8500	400	9000	8500	220	9500	8500	400	9500	8500	220	10000	8500	400	10000	8500	220	0	8000	400	500	8000	400	0	8000	220	500	8000	220	1000	8000	400	1000	8000	220	1500	8000	400	1500	8000	220	2000	8000	400	2000	8000	220	2500	8000	400	2500	8000	220	3000	8000	400	3000	8000	220	3500	8000	400	3500	8000	220	4000	8000	400	4000	8000	220	4500	8000	400	4500	8000	220	5000	8000	400	5000	8000	220	5500	8000	400	5500	8000	220	6000	8000	400	6000	8000	220	6500	8000	400	6500	8000	220	7000	8000	400	7000	8000	220	7500	8000	400	7500	8000	220	8000	8000	400	8000	8000	220	8500	8000	400	8500	8000	220	9000	8000	400	9000	8000	220	9500	8000	400	9500	8000	220	10000	8000	400	10000	8000	220	0	7500	400	500	7500	400	0	7500	220	500	7500	220	1000	7500	400	1000	7500	220	1500	7500	400	1500	7500	220	2000	7500	400	2000	7500	220	2500	7500	400	2500	7500	220	3000	7500	400	3000	7500	220	3500	7500	400	3500	7500	220	4000	7500	400	4000	7500	220	4500	7500	400	4500	7500	220	5000	7500	400	5000	7500	220	5500	7500	400	5500	7500	220	6000	7500	400	6000	7500	220	6500	7500	400	6500	7500	220	7000	7500	400	7000	7500	220	7500	7500	400	7500	7500	220	8000	7500	400	8000	7500	220	8500	7500	400	8500	7500	220	9000	7500	400	9000	7500	220	9500	7500	400	9500	7500	220	10000	7500	400	10000	7500	220	0	7000	400	500	7000	400	0	7000	220	500	7000	220	1000	7000	400	1000	7000	220	1500	7000	400	1500	7000	220	2000	7000	400	2000	7000	220	2500	7000	400	2500	7000	220	3000	7000	400	3000	7000	220	3500	7000	400	3500	7000	220	4000	7000	400	4000	7000	220	4500	7000	400	4500	7000	220	5000	7000	400	5000	7000	220	5500	7000	400	5500	7000	220	6000	7000	400	6000	7000	220	6500	7000	400	6500	7000	220	7000	7000	400	7000	7000	220	7500	7000	400	7500	7000	220	8000	7000	400	8000	7000	220	8500	7000	400	8500	7000	220	9000	7000	400	9000	7000	220	9500	7000	400	9500	7000	220	10000	7000	400	10000	7000	220	0	6500	400	500	6500	400	0	6500	220	500	6500	220	1000	6500	400	1000	6500	220	1500	6500	400	1500	6500	220	2000	6500	400	2000	6500	220	2500	6500	400	2500	6500	220	3000	6500	400	3000	6500	220	3500	6500	400	3500	6500	220	4000	6500	400	4000	6500	220	4500	6500	400	4500	6500	220	5000	6500	400	5000	6500	220	5500	6500	400	5500	6500	220	6000	6500	400	6000	6500	220	6500	6500	400	6500	6500	220	7000	6500	400	7000	6500	220	7500	6500	400	7500	6500	220	8000	6500	400	8000	6500	220	8500	6500	400	8500	6500	220	9000	6500	400	9000	6500	220	9500	6500	400	9500	6500	220	10000	6500	400	10000	6500	220	0	6000	400	500	6000	400	0	6000	220	500	6000	220	1000	6000	400	1000	6000	220	1500	6000	400	1500	6000	220	2000	6000	400	2000	6000	220	2500	6000	400	2500	6000	220	3000	6000	400	3000	6000	220	3500	6000	400	3500	6000	220	6000	6000	400	6500	6000	400	6000	6000	220	6500	6000	220	7000	6000	400	7000	6000	220	7500	6000	400	7500	6000	220	8000	6000	400	8000	6000	220	8500	6000	400	8500	6000	220	9000	6000	400	9000	6000	220	9500	6000	400	9500	6000	220	10000	6000	400	10000	6000	220	0	5500	400	500	5500	400	0	5500	220	500	5500	220	1000	5500	400	1000	5500	220	1500	5500	400	1500	5500	220	2000	5500	400	2000	5500	220	2500	5500	400	2500	5500	220	3000	5500	400	3000	5500	220	3500	5500	400	3500	5500	220	6000	5500	400	6500	5500	400	6000	5500	220	6500	5500	220	7000	5500	400	7000	5500	220	7500	5500	400	7500	5500	220	8000	5500	400	8000	5500	220	8500	5500	400	8500	5500	220	9000	5500	400	9000	5500	220	9500	5500	400	9500	5500	220	10000	5500	400	10000	5500	220	0	5000	400	500	5000	400	0	5000	220	500	5000	220	1000	5000	400	1000	5000	220	1500	5000	400	1500	5000	220	2000	5000	400	2000	5000	220	2500	5000	400	2500	5000	220	3000	5000	400	3000	5000	220	3500	5000	400	3500	5000	220	6000	5000	400	6500	5000	400	6000	5000	220	6500	5000	220	7000	5000	400	7000	5000	220	7500	5000	400	7500	5000	220	8000	5000	400	8000	5000	220	8500	5000	400	8500	5000	220	9000	5000	400	9000	5000	220	9500	5000	400	9500	5000	220	10000	5000	400	10000	5000	220	0	4500	400	500	4500	400	0	4500	220	500	4500	220	1000	4500	400	1000	4500	220	1500	4500	400	1500	4500	220	2000	4500	400	2000	4500	220	2500	4500	400	2500	4500	220	3000	4500	400	3000	4500	220	3500	4500	400	3500	4500	220	6000	4500	400	6500	4500	400	6000	4500	220	6500	4500	220	7000	4500	400	7000	4500	220	7500	4500	400	7500	4500	220	8000	4500	400	8000	4500	220	8500	4500	400	8500	4500	220	9000	4500	400	9000	4500	220	9500	4500	400	9500	4500	220	10000	4500	400	10000	4500	220	0	4000	400	500	4000	400	0	4000	220	500	4000	220	1000	4000	400	1000	4000	220	1500	4000	400	1500	4000	220	2000	4000	400	2000	4000	220	2500	4000	400	2500	4000	220	3000	4000	400	3000	4000	220	3500	4000	400	3500	4000	220	6000	4000	400	6500	4000	400	6000	4000	220	6500	4000	220	7000	4000	400	7000	4000	220	7500	4000	400	7500	4000	220	8000	4000	400	8000	4000	220	8500	4000	400	8500	4000	220	9000	4000	400	9000	4000	220	9500	4000	400	9500	4000	220	10000	4000	400	10000	4000	220	0	3500	400	500	3500	400	0	3500	220	500	3500	220	1000	3500	400	1000	3500	220	1500	3500	400	1500	3500	220	2000	3500	400	2000	3500	220	2500	3500	400	2500	3500	220	3000	3500	400	3000	3500	220	3500	3500	400	3500	3500	220	4000	4000	400	4000	3500	400	4000	4000	220	4000	3500	220	4500	4000	400	4500	3500	400	4500	4000	220	4500	3500	220	5000	4000	400	5000	3500	400	5000	4000	220	5000	3500	220	5500	4000	400	5500	3500	400	5500	4000	220	5500	3500	220	6000	3500	400	6000	3500	220	6500	3500	400	6500	3500	220	7000	3500	400	7000	3500	220	7500	3500	400	7500	3500	220	8000	3500	400	8000	3500	220	8500	3500	400	8500	3500	220	9000	3500	400	9000	3500	220	9500	3500	400	9500	3500	220	10000	3500	400	10000	3500	220	0	3000	400	500	3000	400	0	3000	220	500	3000	220	1000	3000	400	1000	3000	220	1500	3000	400	1500	3000	220	2000	3000	400	2000	3000	220	2500	3000	400	2500	3000	220	3000	3000	400	3000	3000	220	3500	3000	400	3500	3000	220	4000	3000	400	4000	3000	220	4500	3000	400	4500	3000	220	5000	3000	400	5000	3000	220	5500	3000	400	5500	3000	220	6000	3000	400	6000	3000	220	6500	3000	400	6500	3000	220	7000	3000	400	7000	3000	220	7500	3000	400	7500	3000	220	8000	3000	400	8000	3000	220	8500	3000	400	8500	3000	220	9000	3000	400	9000	3000	220	9500	3000	400	9500	3000	220	10000	3000	400	10000	3000	220	0	2500	400	500	2500	400	0	2500	220	500	2500	220	1000	2500	400	1000	2500	220	1500	2500	400	1500	2500	220	2000	2500	400	2000	2500	220	2500	2500	400	2500	2500	220	3000	2500	400	3000	2500	220	3500	2500	400	3500	2500	220	4000	2500	400	4000	2500	220	4500	2500	400	4500	2500	220	5000	2500	400	5000	2500	220	5500	2500	400	5500	2500	220	6000	2500	400	6000	2500	220	6500	2500	400	6500	2500	220	7000	2500	400	7000	2500	220	7500	2500	400	7500	2500	220	8000	2500	400	8000	2500	220	8500	2500	400	8500	2500	220	9000	2500	400	9000	2500	220	9500	2500	400	9500	2500	220	10000	2500	400	10000	2500	220	0	2000	400	500	2000	400	0	2000	220	500	2000	220	1000	2000	400	1000	2000	220	1500	2000	400	1500	2000	220	2000	2000	400	2000	2000	220	2500	2000	400	2500	2000	220	3000	2000	400	3000	2000	220	3500	2000	400	3500	2000	220	40
[...]
<CellData Scalars="scalars">
<DataArray type="Int32" Name="nodeid" format="ascii">1	2	3	4	5	6	7	8	9	10	11	12	13	14	15	16	17	18	19	20	21	22	23	24	25	26	27	28	29	30	31	32	33	34	35	36	37	38	39	40	41	42	43	44	45	46	47	48	49	50	51	52	53	54	55	56	57	58	59	60	61	62	63	64	65	66	67	68	69	70	71	72	73	74	75	76	77	78	79	80	81	82	83	84	85	86	87	88	89	90	91	92	93	94	95	96	97	98	99	100	101	102	103	104	105	106	107	108	109	110	111	112	113	114	115	116	117	118	119	120	121	122	123	124	125	126	127	128	129	130	131	132	133	134	135	136	137	138	139	140	141	142	143	144	145	146	147	148	149	150	151	152	153	154	155	156	157	158	159	160	161	162	163	164	165	166	167	1261	1262	1264	1263	1265	1266	1268	1267	1269	1270	1272	1271	1273	1274	1276	1275	1277	1278	1280	1279	173	174	175	176	177	178	179	180	181	182	183	184	185	186	187	1281	1282	1284	1283	1289	1290	1292	1291	1293	1294	1296	1295	1301	1302	1304	1303	1297	1298	1300	1299	1309	1310	1312	1311	1313	1314	1316	1315	1321	1322	1324	1323	1317	1318	1320	1319	1329	1330	1332	1331	1333	1334	1336	1335	1341	1342	1344	1343	1337	1338	1340	1339	1345	1346	1348	1347	193	194	195	196	197	198	199	200	201	202	203	204	205	206	207	1349	1350	1352	1351	1357	1358	1360	1359	1361	1362	1364	1363	1369	1370	1372	1371	1365	1366	1368	1367	1381	1382	1384	1383	1385	1386	1388	1387	1393	1394	1396	1395	1389	1390	1392	1391	1401	1402	1404	1403	1405	1406	1408	1407	1413	1414	1416	1415	1409	1410	1412	1411	1441	1442	1444	1443	1445	1446	1448	1447	1453	1454	1456	1455	1449	1450	1452	1451	1421	1422	1424	1423	1425	1426	1428	1427	1433	1434	1436	1435	1429	1430	1432	1431	1461	1462	1464	1463	1465	1466	1468	1467	1473	1474	1476	1475	1469	1470	1472	1471	1477	1478	1480	1479	213	214	215	216	217	218	219	220	221	222	223	224	225	226	227	1481	1482	1484	1483	1489	1490	1492	1491	1493	1494	1496	1495	1501	1502	1504	1503	1497	1498	1500	1499	1509	1510	1512	1511	1513	1514	1516	1515	1521	1522	1524	1523	1517	1518	1520	1519	1529	1530	1532	1531	1533	1534	1536	1535	1541	1542	1544	1543	1537	1538	1540	1539	1545	1546	1548	1547	233	234	235	236	237	238	239	240	241	242	243	244	245	246	247	1549	1550	1552	1551	1553	1554	1556	1555	1557	1558	1560	1559	1561	1562	1564	1563	1565	1566	1568	1567	253	254	255	256	257	258	259	260	261	262	263	264	265	266	267	268	269	270	271	272	273	274	275	276	277	278	279	280	281	282	283	284	285	286	287	288	289	290	291	292	293	294	295	296	297	298	299	300	301	302	303	304	305	306	307	308	309	310	311	312	313	314	315	316	317	318	319	320	321	322	323	324	325	326	327	328	329	330	331	332	333	334	335	336	337	338	339	340	341	342	343	344	345	346	347	348	349	350	351	352	353	354	355	356	357	358	359	360	361	362	363	364	365	366	367	368	369	370	371	372	373	374	375	376	377	378	379	380	381	382	383	384	385	386	387	388	389	390	391	392	393	394	395	396	397	398	399	400	401	402	403	404	405	406	407	408	409	410	411	412	413	414	415	416	417	418	419	420	421	422	423	424	425	426	427	428	429	430	431	432	433	434	435	436	437	438	439	440	441	442	443	444	445	446	447	448	449	450	451	452	453	454	455	456	457	458	459	460	461	462	463	464	465	466	467	468	469	470	471	472	473	474	475	476	477	478	479	480	481	482	483	484	485	486	487	488	489	490	491	492	493	494	495	496	497	498	499	500	501	502	503	504	505	506	507	508	509	510	511	512	513	514	515	516	517	518	519	520	521	522	523	524	525	526	527	528	529	530	531	532	533	534	535	536	537	538	539	540	541	542	543	544	545	546	547	548	549	550	551	552	553	554	555	556	557	558	559	560	561	562	563	564	565	566	567	568	569	570	571	572	573	574	575	576	577	578	579	580	581	582	583	584	585	586	587	1569	1570	1572	1571	1573	1574	1576	1575	1577	1578	1580	1579	1581	1582	1584	1583	1585	1586	1588	1587	593	594	595	596	597	598	599	600	601	602	603	604	605	606	607	1589	1590	1592	1591	1597	1598	1600	1599	1601	1602	1604	1603	1609	1610	1612	1611	1605	1606	1608	1607	1617	1618	1620	1619	1621	1622	1624	1623	1629	1630	1632	1631	1625	1626	1628	1627	1637	1638	1640	1639	1641	1642	1644	1643	1649	1650	1652	1651	1645	1646	1648	1647	1653	1654	1656	1655	613	614	615	616	617	618	619	620	621	622	623	624	625	626	627	1657	1658	1660	1659	1665	1666	1668	1667	1669	1670	1672	1671	1677	1678	1680	1679	1673	1674	1676	1675	1689	1690	1692	1691	1693	1694	1696	1695	1701	1702	1704	1703	1697	1698	1700	1699	1709	1710	1712	1711	1713	1714	1716	1715	1721	1722	1724	1723	1717	1718	1720	1719	1749	1750	1752	1751	1753	1754	1756	1755	1761	1762	1764	1763	1757	1758	1760	1759	1729	1730	1732	1731	1733	1734	1736	1735	1741	1742	1744	1743	1737	1738	1740	1739	1769	1770	1772	1771	1773	1774	1776	1775	1781	1782	1784	1783	1777	1778	1780	1779	1785	1786	1788	1787	633	634	635	636	637	638	639	640	641	642	643	644	645	646	647	1789	1790	1792	1791	1797	1798	1800	1799	1801	1802	1804	1803	1809	1810	1812	1811	1805	1806	1808	1807	1817	1818	1820	1819	1821	1822	1824	1823	1829	1830	1832	1831	1825	1826	1828	1827	1837	1838	1840	1839	1841	1842	1844	1843	1849	1850	1852	1851	1845	1846	1848	1847	1853	1854	1856	1855	653	654	655	656	657	658	659	660	661	662	663	664	665	666	667	1857	1858	1860	1859	1861	1862	1864	1863	1865	1866	1868	1867	1869	1870	1872	1871	1873	1874	1876	1875	673	674	675	676	677	678	679	680	681	682	683	684	685	686	687	688	689	690	691	692	693	694	695	696	697	698	699	700	701	702	703	704	705	706	707	708	709	710	711	712	713	714	715	716	717	718	719	720	721	722	723	724	725	726	727	728	729	730	731	732	733	734	735	736	737	738	739	740	741	742	743	744	745	746	747	748	749	750	751	752	753	754	755	756	757	758	759	760	761	762	763	764	765	766	767	768	769	770	771	772	773	774	775	776	777	778	779	780	781	782	783	784	785	786	787	788	789	790	791	792	793	794	795	796	797	798	799	800	801	802	803	804	805	806	807	808	809	810	811	812	813	814	815	816	817	818	819	820	821	822	823	824	825	826	827	828	829	830	831	832	833	834	835	836	837	838	839	840	841	842	843	844	845	846	847	848	849	850	851	852	853	854	855	856	857	858	859	860	861	862	863	864	865	866	867	868	869	870	871	872	873	874	875	876	877	878	879	880	881	882	883	884	885	886	887	888	889	890	891	892	893	894	895	896	897	898	899	900	901	902	903	904	905	906	907	908	909	910	911	912	913	914	915	916	917	918	919	920	921	922	923	924	925	926	927	928	929	930	931	932	933	934	935	936	937	938	939	940	941	942	943	944	945	946	947	948	949	950	951	952	953	954	955	956	957	958	959	960	961	962	963	964	965	966	967	968	969	970	971	972	973	974	975	976	977	978	979	980	981	982	983	984	985	986	987	988	989	990	991	992	993	994	995	996	997	998	999	1000	1001	1002	1003	1004	1005	1006	1007	1877	1878	1880	1879	1881	1882	1884	1883	1885	1886	1888	1887	1889	1890	1892	1891	1893	1894	1896	1895	1013	1014	1015	1016	1017	1018	1019	1020	1021	1022	1023	1024	1025	1026	1027	1897	1898	1900	1899	1905	1906	1908	1907	1909	1910	1912	1911	1917	1918	1920	1919	1913	1914	1916	1915	1925	1926	1928	1927	1929	1930	1932	1931	1937	1938	1940	1939	1933	1934	1936	1935	1945	1946	1948	1947	1949	1950	1952	1951	1957	1958	1960	1959	1953	1954	1956	1955	1961	1962	1964	1963	1033	1034	1035	1036	1037	1038	1039	1040	1041	1042	1043	1044	1045	1046	1047	1965	1966	1968	1967	1973	1974	1976	1975	1977	1978	1980	1979	1985	1986	1988	1987	1981	1982	1984	1983	1997	1998	2000	1999	2001	2002	2004	2003	2009	2010	2012	2011	2005	2006	2008	2007	2017	2018	2020	2019	2021	2022	2024	2023	2029	2030	2032	2031	2025	2026	2028	2027	2057	2058	2060	2059	2061	2062	2064	2063	2069	2070	2072	2071	2065	2066	2068	2067	2037	2038	2040	2039	2041	2042	2044	2043	2049	2050	2052	2051	2045	2046	2048	2047	2077	2078	2080	2079	2081	2082	2084	2083	2089	2090	2092	2091	2085	2086	2088	2087	2093	2094	2096	2095	1053	1054	1055	1056	1057	1058	1059	1060	1061	1062	1063	1064	1065	1066	1067	2097	2098	2100	2099	2105	2106	2108	2107	2109	2110	2112	2111	2117	2118	2120	2119	2113	2114	2116	2115	2125	2126	2128	2127	2129	2130	2132	2131	2137	2138	2140	2139	2133	2134	2136	2135	2145	2146	2148	2147	2149	2150	2152	2151	2157	2158	2160	2159	2153	2154	2156	2155	2161	2162	2164	2163	1073	1074	1075	1076	1077	1078	1079	1080	1081	1082	1083	1084	1085	1086	1087	2165	2166	2168	2167	2169	2170	2172	2171	2173	2174	2176	2175	2177	2178	2180	2179	2181	2182	2184	2183	1093	1094	1095	1096	1097	1098	1099	1100	1101	1102	1103	1104	1105	1106	1107	1108	1109	1110	1111	1112	1113	1114	1115	1116	1117	1118	1119	1120	1121	1122	1123	1124	1125	1126	1127	1128	1129	1130	1131	1132	1133	1134	1135	1136	1137	1138	1139	1140	1141	1142	1143	1144	1145	1146	1147	1148	1149	1150	1151	1152	1153	1154	1155	1156	1157	1158	1159	1160	1161	1162	1163	1164	1165	1166	1167	1168	1169	1170	1171	1172	1173	1174	1175	1176	1177	1178	1179	1180	1181	1182	1183	1184	1185	1186	1187	1188	1189	1190	1191	1192	1193	1194	1195	1196	1197	1198	1199	1200	1201	1202	1203	1204	1205	1206	1207	1208	1209	1210	1211	1212	1213	1214	1215	1216	1217	1218	1219	1220	1221	1222	1223	1224	1225	1226	1227	1228	1229	1230	1231	1232	1233	1234	1235	1236	1237	1238	1239	1240	1241	1242	1243	1244	1245	1246	1247	1248	1249	1250	1251	1252	1253	1254	1255	1256	1257	1258	1259	1260	</DataArray>
<DataArray type="Int32" Name="nodenumber" format="ascii">1	2	3	4	5	6	7	8	9	10	11	12	13	14	15	16	17	18	19	20	21	22	23	24	25	26	27	28	29	30	31	32	33	34	35	36	37	38	39	40	41	42	43	44	45	46	47	48	49	50	51	52	53	54	55	56	57	58	59	60	61	62	63	64	65	66	67	68	69	70	71	72	73	74	75	76	77	78	79	80	81	82	83	84	85	86	87	88	89	90	91	92	93	94	95	96	97	98	99	100	101	102	103	104	105	106	107	108	109	110	111	112	113	114	115	116	117	118	119	120	121	122	123	124	125	126	127	128	129	130	131	132	133	134	135	136	137	138	139	140	141	142	143	144	145	146	147	148	149	150	151	152	153	154	155	156	157	158	159	160	161	162	163	164	165	166	167	168	169	171	170	172	173	175	174	176	177	179	178	180	181	183	182	184	185	187	186	188	189	190	191	192	193	194	195	196	197	198	199	200	201	202	203	204	206	205	207	208	210	209	211	212	214	213	219	220	222	221	215	216	218	217	223	224	226	225	227	228	230	229	235	236	238	237	231	232	234	233	239	240	242	241	243	244	246	245	251	252	254	253	247	248	250	249	255	256	258	257	259	260	261	262	263	264	265	266	267	268	269	270	271	272	273	274	275	277	276	278	279	281	280	282	283	285	284	290	291	293	292	286	287	289	288	294	295	297	296	298	299	301	300	306	307	309	308	302	303	305	304	310	311	313	312	314	315	317	316	322	323	325	324	318	319	321	320	342	343	345	344	346	347	349	348	354	355	357	356	350	351	353	352	326	327	329	328	330	331	333	332	338	339	341	340	334	335	337	336	358	359	361	360	362	363	365	364	370	371	373	372	366	367	369	368	374	375	377	376	378	379	380	381	382	383	384	385	386	387	388	389	390	391	392	393	394	396	395	397	398	400	399	401	402	404	403	409	410	412	411	405	406	408	407	413	414	416	415	417	418	420	419	425	426	428	427	421	422	424	423	429	430	432	431	433	434	436	435	441	442	444	443	437	438	440	439	445	446	448	447	449	450	451	452	453	454	455	456	457	458	459	460	461	462	463	464	465	467	466	468	469	471	470	472	473	475	474	476	477	479	478	480	481	483	482	484	485	486	487	488	489	490	491	492	493	494	495	496	497	498	499	500	501	502	503	504	505	506	507	508	509	510	511	512	513	514	515	516	517	518	519	520	521	522	523	524	525	526	527	528	529	530	531	532	533	534	535	536	537	538	539	540	541	542	543	544	545	546	547	548	549	550	551	552	553	554	555	556	557	558	559	560	561	562	563	564	565	566	567	568	569	570	571	572	573	574	575	576	577	578	579	580	581	582	583	584	585	586	587	588	589	590	591	592	593	594	595	596	597	598	599	600	601	602	603	604	605	606	607	608	609	610	611	612	613	614	615	616	617	618	619	620	621	622	623	624	625	626	627	628	629	630	631	632	633	634	635	636	637	638	639	640	641	642	643	644	645	646	647	648	649	650	651	652	653	654	655	656	657	658	659	660	661	662	663	664	665	666	667	668	669	670	671	672	673	674	675	676	677	678	679	680	681	682	683	684	685	686	687	688	689	690	691	692	693	694	695	696	697	698	699	700	701	702	703	704	705	706	707	708	709	710	711	712	713	714	715	716	717	718	719	720	721	722	723	724	725	726	727	728	729	730	731	732	733	734	735	736	737	738	739	740	741	742	743	744	745	746	747	748	749	750	751	752	753	754	755	756	757	758	759	760	761	762	763	764	765	766	767	768	769	770	771	772	773	774	775	776	777	778	779	780	781	782	783	784	785	786	787	788	789	790	791	792	793	794	795	796	797	798	799	800	801	802	803	804	805	806	807	808	809	810	811	812	813	814	815	816	817	818	819	820	822	821	823	824	826	825	827	828	830	829	831	832	834	833	835	836	838	837	839	840	841	842	843	844	845	846	847	848	849	850	851	852	853	854	855	857	856	858	859	861	860	862	863	865	864	870	871	873	872	866	867	869	868	874	875	877	876	878	879	881	880	886	887	889	888	882	883	885	884	890	891	893	892	894	895	897	896	902	903	905	904	898	899	901	900	906	907	909	908	910	911	912	913	914	915	916	917	918	919	920	921	922	923	924	925	926	928	927	929	930	932	931	933	934	936	935	941	942	944	943	937	938	940	939	945	946	948	947	949	950	952	951	957	958	960	959	953	954	956	955	961	962	964	963	965	966	968	967	973	974	976	975	969	970	972	971	993	994	996	995	997	998	1000	999	1005	1006	1008	1007	1001	1002	1004	1003	977	978	980	979	981	982	984	983	989	990	992	991	985	986	988	987	1009	1010	1012	1011	1013	1014	1016	1015	1021	1022	1024	1023	1017	1018	1020	1019	1025	1026	1028	1027	1029	1030	1031	1032	1033	1034	1035	1036	1037	1038	1039	1040	1041	1042	1043	1044	1045	1047	1046	1048	1049	1051	1050	1052	1053	1055	1054	1060	1061	1063	1062	1056	1057	1059	1058	1064	1065	1067	1066	1068	1069	1071	1070	1076	1077	1079	1078	1072	1073	1075	1074	1080	1081	1083	1082	1084	1085	1087	1086	1092	1093	1095	1094	1088	1089	1091	1090	1096	1097	1099	1098	1100	1101	1102	1103	1104	1105	1106	1107	1108	1109	1110	1111	1112	1113	1114	1115	1116	1118	1117	1119	1120	1122	1121	1123	1124	1126	1125	1127	1128	1130	1129	1131	1132	1134	1133	1135	1136	1137	1138	1139	1140	1141	1142	1143	1144	1145	1146	1147	1148	1149	1150	1151	1152	1153	1154	1155	1156	1157	1158	1159	1160	1161	1162	1163	1164	1165	1166	1167	1168	1169	1170	1171	1172	1173	1174	1175	1176	1177	1178	1179	1180	1181	1182	1183	1184	1185	1186	1187	1188	1189	1190	1191	1192	1193	1194	1195	1196	1197	1198	1199	1200	1201	1202	1203	1204	1205	1206	1207	1208	1209	1210	1211	1212	1213	1214	1215	1216	1217	1218	1219	1220	1221	1222	1223	1224	1225	1226	1227	1228	1229	1230	1231	1232	1233	1234	1235	1236	1237	1238	1239	1240	1241	1242	1243	1244	1245	1246	1247	1248	1249	1250	1251	1252	1253	1254	1255	1256	1257	1258	1259	1260	1261	1262	1263	1264	1265	1266	1267	1268	1269	1270	1271	1272	1273	1274	1275	1276	1277	1278	1279	1280	1281	1282	1283	1284	1285	1286	1287	1288	1289	1290	1291	1292	1293	1294	1295	1296	1297	1298	1299	1300	1301	1302	1303	1304	1305	1306	1307	1308	1309	1310	1311	1312	1313	1314	1315	1316	1317	1318	1319	1320	1321	1322	1323	1324	1325	1326	1327	1328	1329	1330	1331	1332	1333	1334	1335	1336	1337	1338	1339	1340	1341	1342	1343	1344	1345	1346	1347	1348	1349	1350	1351	1352	1353	1354	1355	1356	1357	1358	1359	1360	1361	1362	1363	1364	1365	1366	1367	1368	1369	1370	1371	1372	1373	1374	1375	1376	1377	1378	1379	1380	1381	1382	1383	1384	1385	1386	1387	1388	1389	1390	1391	1392	1393	1394	1395	1396	1397	1398	1399	1400	1401	1402	1403	1404	1405	1406	1407	1408	1409	1410	1411	1412	1413	1414	1415	1416	1417	1418	1419	1420	1421	1422	1423	1424	1425	1426	1427	1428	1429	1430	1431	1432	1433	1434	1435	1436	1437	1438	1439	1440	1441	1442	1443	1444	1445	1446	1447	1448	1449	1450	1451	1452	1453	1454	1455	1456	1457	1458	1459	1460	1461	1462	1463	1464	1465	1466	1467	1468	1469	1470	1471	1473	1472	1474	1475	1477	1476	1478	1479	1481	1480	1482	1483	1485	1484	1486	1487	1489	1488	1490	1491	1492	1493	1494	1495	1496	1497	1498	1499	1500	1501	1502	1503	1504	1505	1506	1508	1507	1509	1510	1512	1511	1513	1514	1516	1515	1521	1522	1524	1523	1517	1518	1520	1519	1525	1526	1528	1527	1529	1530	1532	1531	1537	1538	1540	1539	1533	1534	1536	1535	1541	1542	1544	1543	1545	1546	1548	1547	1553	1554	1556	1555	1549	1550	1552	1551	1557	1558	1560	1559	1561	1562	1563	1564	1565	1566	1567	1568	1569	1570	1571	1572	1573	1574	1575	1576	1577	1579	1578	1580	1581	1583	1582	1584	1585	1587	1586	1592	1593	1595	1594	1588	1589	1591	1590	1596	1597	1599	1598	1600	1601	1603	1602	1608	1609	1611	1610	1604	1605	1607	1606	1612	1613	1615	1614	1616	1617	1619	1618	1624	1625	1627	1626	1620	1621	1623	1622	1644	1645	1647	1646	1648	1649	1651	1650	1656	1657	1659	1658	1652	1653	1655	1654	1628	1629	1631	1630	1632	1633	1635	1634	1640	1641	1643	1642	1636	1637	1639	1638	1660	1661	1663	1662	1664	1665	1667	1666	1672	1673	1675	1674	1668	1669	1671	1670	1676	1677	1679	1678	1680	1681	1682	1683	1684	1685	1686	1687	1688	1689	1690	1691	1692	1693	1694	1695	1696	1698	1697	1699	1700	1702	1701	1703	1704	1706	1705	1711	1712	1714	1713	1707	1708	1710	1709	1715	1716	1718	1717	1719	1720	1722	1721	1727	1728	1730	1729	1723	1724	1726	1725	1731	1732	1734	1733	1735	1736	1738	1737	1743	1744	1746	1745	1739	1740	1742	1741	1747	1748	1750	1749	1751	1752	1753	1754	1755	1756	1757	1758	1759	1760	1761	1762	1763	1764	1765	1766	1767	1769	1768	1770	1771	1773	1772	1774	1775	1777	1776	1778	1779	1781	1780	1782	1783	1785	1784	1786	1787	1788	1789	1790	1791	1792	1793	1794	1795	1796	1797	1798	1799	1800	1801	1802	1803	1804	1805	1806	1807	1808	1809	1810	1811	1812	1813	1814	1815	1816	1817	1818	1819	1820	1821	1822	1823	1824	1825	1826	1827	1828	1829	1830	1831	1832	1833	1834	1835	1836	1837	1838	1839	1840	1841	1842	1843	1844	1845	1846	1847	1848	1849	1850	1851	1852	1853	1854	1855	1856	1857	1858	1859	1860	1861	1862	1863	1864	1865	1866	1867	1868	1869	1870	1871	1872	1873	1874	1875	1876	1877	1878	1879	1880	1881	1882	1883	1884	1885	1886	1887	1888	1889	1890	1891	1892	1893	1894	1895	1896	1897	1898	1899	1900	1901	1902	1903	1904	1905	1906	1907	1908	1909	1910	1911	1912	1913	1914	1915	1916	1917	1918	1919	1920	1921	1922	1923	1924	1925	1926	1927	1928	1929	1930	1931	1932	1933	1934	1935	1936	1937	1938	1939	1940	1941	1942	1943	1944	1945	1946	1947	1948	1949	1950	1951	1952	1953	</DataArray>