<?xml version="1.0"?>
<VTKFile type="UnstructuredGrid" version="0.1" byte_order="BigEndian">
<UnstructuredGrid GhostLevel="0">
<Piece NumberOfPoints="4202" NumberOfCells="1974" ><Points>
<DataArray type="Float32" NumberOfComponents="3" format="ascii">
0	10500	100	0	10000	100	500	10500	100	500	10000	100	0	10500	0	0	10000	0	500	10500	0	500	10000	0	1000	10500	100	1000	10000	100	1000	10500	0	1000	10000	0	1500	10500	100	1500	10000	100	1500	10500	0	1500	10000	0	2000	10500	100	2000	10000	100	2000	10500	0	2000	10000	0	2500	10500	100	2500	10000	100	2500	10500	0	2500	10000	0	3000	10500	100	3000	10000	100	3000	10500	0	3000	10000	0	3500	10500	100	3500	10000	100	3500	10500	0	3500	10000	0	4000	10500	100	4000	10000	100	4000	10500	0	4000	10000	0	4500	10500	100	4500	10000	100	4500	10500	0	4500	10000	0	5000	10500	100	5000	10000	100	5000	10500	0	5000	10000	0	5500	10500	100	5500	10000	100	5500	10500	0	5500	10000	0	6000	10500	100	6000	10000	100	6000	10500	0	6000	10000	0	6500	10500	100	6500	10000	100	6500	10500	0	6500	10000	0	7000	10500	100	7000	10000	100	7000	10500	0	7000	10000	0	7500	10500	100	7500	10000	100	7500	10500	0	7500	10000	0	8000	10500	100	8000	10000	100	8000	10500	0	8000	10000	0	8500	10500	100	8500	10000	100	8500	10500	0	8500	10000	0	9000	10500	100	9000	10000	100	9000	10500	0	9000	10000	0	9500	10500	100	9500	10000	100	9500	10500	0	9500	10000	0	10000	10500	100	10000	10000	100	10000	10500	0	10000	10000	0	10500	10500	100	10500	10000	100	10500	10500	0	10500	10000	0	11000	10500	100	11000	10000	100	11000	10500	0	11000	10000	0	11500	10500	100	11500	10000	100	11500	10500	0	11500	10000	0	12000	10500	100	12000	10000	100	12000	10500	0	12000	10000	0	12500	10500	100	12500	10000	100	12500	10500	0	12500	10000	0	13000	10500	100	13000	10000	100	13000	10500	0	13000	10000	0	0	9500	100	500	9500	100	0	9500	0	500	9500	0	1000	9500	100	1000	9500	0	1500	9500	100	1500	9500	0	2000	9500	100	2000	9500	0	2500	9500	100	2500	9500	0	3000	9500	100	3000	9500	0	6000	9500	100	6500	9500	100	6000	9500	0	6500	9500	0	7000	9500	100	7000	9500	0	7500	9500	100	7500	9500	0	8000	9500	100	8000	9500	0	8500	9500	100	8500	9500	0	9000	9500	100	9000	9500	0	9500	9500	100	9500	9500	0	10000	9500	100	10000	9500	0	10500	9500	100	10500	9500	0	11000	9500	100	11000	9500	0	11500	9500	100	11500	9500	0	12000	9500	100	12000	9500	0	12500	9500	100	12500	9500	0	13000	9500	100	13000	9500	0	0	9000	100	500	9000	100	0	9000	0	500	9000	0	1000	9000	100	1000	9000	0	1500	9000	100	1500	9000	0	2000	9000	100	2000	9000	0	2500	9000	100	2500	9000	0	6500	9000	100	7000	9000	100	6500	9000	0	7000	9000	0	7500	9000	100	7500	9000	0	8000	9000	100	8000	9000	0	8500	9000	100	8500	9000	0	9000	9000	100	9000	9000	0	9500	9000	100	9500	9000	0	10000	9000	100	10000	9000	0	10500	9000	100	10500	9000	0	11000	9000	100	11000	9000	0	11500	9000	100	11500	9000	0	12000	9000	100	12000	9000	0	12500	9000	100	12500	9000	0	13000	9000	100	13000	9000	0	0	8500	100	500	8500	100	0	8500	0	500	8500	0	1000	8500	100	1000	8500	0	1500	8500	100	1500	8500	0	2000	8500	100	2000	8500	0	2500	8500	100	2500	8500	0	6500	8500	100	7000	8500	100	6500	8500	0	7000	8500	0	7500	8500	100	7500	8500	0	8000	8500	100	8000	8500	0	8500	8500	100	8500	8500	0	9000	8500	100	9000	8500	0	9500	8500	100	9500	8500	0	10000	8500	100	10000	8500	0	10500	8500	100	10500	8500	0	11000	8500	100	11000	8500	0	11500	8500	100	11500	8500	0	12000	8500	100	12000	8500	0	12500	8500	100	12500	8500	0	13000	8500	100	13000	8500	0	0	8000	100	500	8000	100	0	8000	0	500	8000	0	1000	8000	100	1000	8000	0	1500	8000	100	1500	8000	0	2000	8000	100	2000	8000	0	2500	8000	100	2500	8000	0	6500	8000	100	7000	8000	100	6500	8000	0	7000	8000	0	7500	8000	100	7500	8000	0	8000	8000	100	8000	8000	0	8500	8000	100	8500	8000	0	9000	8000	100	9000	8000	0	9500	8000	100	9500	8000	0	10000	8000	100	10000	8000	0	10500	8000	100	10500	8000	0	11000	8000	100	11000	8000	0	11500	8000	100	11500	8000	0	12000	8000	100	12000	8000	0	12500	8000	100	12500	8000	0	13000	8000	100	13000	8000	0	0	7500	100	500	7500	100	0	7500	0	500	7500	0	1000	7500	100	1000	7500	0	1500	7500	100	1500	7500	0	2000	7500	100	2000	7500	0	2500	7500	100	2500	7500	0	6500	7500	100	7000	7500	100	6500	7500	0	7000	7500	0	7500	7500	100	7500	7500	0	8000	7500	100	8000	7500	0	8500	7500	100	8500	7500	0	9000	7500	100	9000	7500	0	9500	7500	100	9500	7500	0	10000	7500	100	10000	7500	0	10500	7500	100	10500	7500	0	11000	7500	100	11000	7500	0	11500	7500	100	11500	7500	0	12000	7500	100	12000	7500	0	12500	7500	100	12500	7500	0	13000	7500	100	13000	7500	0	0	7000	100	500	7000	100	0	7000	0	500	7000	0	1000	7000	100	1000	7000	0	1500	7000	100	1500	7000	0	2000	7000	100	2000	7000	0	2500	7000	100	2500	7000	0	6500	7000	100	7000	7000	100	6500	7000	0	7000	7000	0	7500	7000	100	7500	7000	0	8000	7000	100	8000	7000	0	8500	7000	100	8500	7000	0	9000	7000	100	9000	7000	0	9500	7000	100	9500	7000	0	10000	7000	100	10000	7000	0	10500	7000	100	10500	7000	0	11000	7000	100	11000	7000	0	11500	7000	100	11500	7000	0	12000	7000	100	12000	7000	0	12500	7000	100	12500	7000	0	13000	7000	100	13000	7000	0	0	6500	100	500	6500	100	0	6500	0	500	6500	0	1000	6500	100	1000	6500	0	1500	6500	100	1500	6500	0	2000	6500	100	2000	6500	0	2500	6500	100	2500	6500	0	6500	6500	100	7000	6500	100	6500	6500	0	7000	6500	0	7500	6500	100	7500	6500	0	8000	6500	100	8000	6500	0	8500	6500	100	8500	6500	0	9000	6500	100	9000	6500	0	9500	6500	100	9500	6500	0	10000	6500	100	10000	6500	0	10500	6500	100	10500	6500	0	11000	6500	100	11000	6500	0	11500	6500	100	11500	6500	0	12000	6500	100	12000	6500	0	12500	6500	100	12500	6500	0	13000	6500	100	13000	6500	0	0	6000	100	500	6000	100	0	6000	0	500	6000	0	1000	6000	100	1000	6000	0	1500	6000	100	1500	6000	0	2000	6000	100	2000	6000	0	2500	6000	100	2500	6000	0	6500	6000	100	7000	6000	100	6500	6000	0	7000	6000	0	7500	6000	100	7500	6000	0	8000	6000	100	8000	6000	0	8500	6000	100	8500	6000	0	9000	6000	100	9000	6000	0	9500	6000	100	9500	6000	0	10000	6000	100	10000	6000	0	10500	6000	100	10500	6000	0	11000	6000	100	11000	6000	0	11500	6000	100	11500	6000	0	12000	6000	100	12000	6000	0	12500	6000	100	12500	6000	0	13000	6000	100	13000	6000	0	0	5500	100	500	5500	100	0	5500	0	500	5500	0	1000	5500	100	1000	5500	0	1500	5500	100	1500	5500	0	2000	5500	100	2000	5500	0	2500	5500	100	2500	5500	0	3000	6000	100	3000	5500	100	3000	6000	0	3000	5500	0	6000	6000	100	6000	5500	100	6500	5500	100	6000	6000	0	6000	5500	0	6500	5500	0	7000	5500	100	7000	5500	0	7500	5500	100	7500	5500	0	8000	5500	100	8000	5500	0	8500	5500	100	8500	5500	0	9000	5500	100	9000	5500	0	9500	5500	100	9500	5500	0	10000	5500	100	10000	5500	0	10500	5500	100	10500	5500	0	11000	5500	100	11000	5500	0	11500	5500	100	11500	5500	0	12000	5500	100	12000	5500	0	12500	5500	100	12500	5500	0	13000	5500	100	13000	5500	0	0	5000	100	500	5000	100	0	5000	0	500	5000	0	1000	5000	100	1000	5000	0	1500	5000	100	1500	5000	0	2000	5000	100	2000	5000	0	2500	5000	100	2500	5000	0	3000	5000	100	3000	5000	0	3500	5500	100	3500	5000	100	3500	5500	0	3500	5000	0	4000	5500	100	4000	5000	100	4000	5500	0	4000	5000	0	4500	5500	100	4500	5000	100	4500	5500	0	4500	5000	0	5000	5500	100	5000	5000	100	5000	5500	0	5000	5000	0	5500	5500	100	5500	5000	100	5500	5500	0	5500	5000	0	6000	5000	100	6000	5000	0	6500	5000	100	6500	5000	0	7000	5000	100	7000	5000	0	7500	5000	100	7500	5000	0	8000	5000	100	8000	5000	0	8500	5000	100	8500	5000	0	9000	5000	100	9000	5000	0	9500	5000	100	9500	5000	0	10000	5000	100	10000	5000	0	10500	5000	100	10500	5000	0	11000	5000	100	11000	5000	0	11500	5000	100	11500	5000	0	12000	5000	100	12000	5000	0	12500	5000	100	12500	5000	0	13000	5000	100	13000	5000	0	0	4500	100	500	4500	100	0	4500	0	500	4500	0	1000	4500	100	1000	4500	0	1500	4500	100	1500	4500	0	2000	4500	100	2000	4500	0	2500	4500	100	2500	4500	0	3000	4500	100	3000	4500	0	3500	4500	100	3500	4500	0	4000	4500	100	4000	4500	0	4500	4500	100	4500	4500	0	5000	4500	100	5000	4500	0	5500	4500	100	5500	4500	0	6000	4500	100	6000	4500	0	6500	4500	100	6500	4500	0	7000	4500	100	7000	4500	0	7500	4500	100	7500	4500	0	8000	4500	100	8000	4500	0	8500	4500	100	8500	4500	0	9000	4500	100	9000	4500	0	9500	4500	100	9500	4500	0	10000	4500	100	10000	4500	0	10500	4500	100	10500	4500	0	11000	4500	100	11000	4500	0	11500	4500	100	11500	4500	0	12000	4500	100	12000	4500	0	12500	4500	100	12500	4500	0	13000	4500	100	13000	4500	0	0	4000	100	500	4000	100	0	4000	0	500	4000	0	1000	4000	100	1000	4000	0	1500	4000	100	1500	4000	0	2000	4000	100	2000	4000	0	2500	4000	100	2500	4000	0	3000	4000	100	3000	4000	0	3500	4000	100	3500	4000	0	4000	4000	100	4000	4000	0	4500	4000	100	4500	4000	0	5000	4000	100	5000	4000	0	5500	4000	100	5500	4000	0	6000	4000	100	6000	4000	0	6500	4000	100	6500	4000	0	7000	4000	100	7000	4000	0	7500	4000	100	7500	4000	0	8000	4000	100	8000	4000	0	8500	4000	100	8500	4000	0	9000	4000	100	9000	4000	0	9500	4000	100	9500	4000	0	10000	4000	100	10000	4000	0	10500	4000	100	10500	4000	0	11000	4000	100	11000	4000	0	11500	4000	100	11500	4000	0	12000	4000	100	12000	4000	0	12500	4000	100	12500	4000	0	13000	4000	100	13000	4000	0	0	3500	100	500	3500	100	0	3500	0	500	3500	0	1000	3500	100	1000	3500	0	1500	3500	100	1500	3500	0	2000	3500	100	2000	3500	0	2500	3500	100	2500	3500	0	3000	3500	100	3000	3500	0	3500	3500	100	3500	3500	0	4000	3500	100	4000	3500	0	4500	3500	100	4500	3500	0	5000	3500	100	5000	3500	0	5500	3500	100	5500	3500	0	6000	3500	100	6000	3500	0	6500	3500	100	6500	3500	0	7000	3500	100	7000	3500	0	7500	3500	100	7500	3500	0	8000	3500	100	8000	3500	0	8500	3500	100	8500	3500	0	9000	3500	100	9000	3500	0	9500	3500	100	9500	3500	0	10000	3500	100	10000	3500	0	10500	3500	100	10500	3500	0	11000	3500	100	11000	3500	0	11500	3500	100	11500	3500	0	12000	3500	100	12000	3500	0	12500	3500	100	12500	3500	0	13000	3500	100	13000	3500	0	0	3000	100	500	3000	100	0	3000	0	500	3000	0	1000	3000	100	1000	3000	0	1500	3000	100	1500	3000	0	2000	3000	100	2000	3000	0	2500	3000	100	2500	3000	0	3000	3000	100	3000	3000	0	3500	3000	100	3500	3000	0	4000	3000	100	4000	3000	0	4500	3000	100	4500	3000	0	5000	3000	100	5000	3000	0	5500	3000	100	5500	3000	0	6000	3000	100	6000	3000	0	6500	3000	100	6500	3000	0	7000	3000	100	70
[...]
<CellData Scalars="scalars">
<DataArray type="Int32" Name="nodeid" format="ascii">1	2	3	4	5	6	7	8	9	10	11	12	13	14	15	16	17	18	19	20	21	22	23	24	25	26	27	28	29	30	31	32	547	548	550	549	551	552	554	553	555	556	558	557	559	560	562	561	563	564	566	565	567	568	570	569	39	40	41	42	43	44	45	46	47	48	49	50	51	52	53	54	55	56	57	571	572	574	573	575	576	578	577	583	584	586	585	587	588	590	589	595	596	598	597	591	592	594	593	603	604	606	605	607	608	610	609	615	616	618	617	611	612	614	613	623	624	626	625	627	628	630	629	635	636	638	637	631	632	634	633	643	644	646	645	647	648	650	649	655	656	658	657	651	652	654	653	659	660	662	661	663	664	666	665	66	67	68	69	70	71	72	73	74	75	76	77	78	79	80	81	82	83	667	668	670	669	675	676	678	677	679	680	682	681	687	688	690	689	683	684	686	685	695	696	698	697	699	700	702	701	707	708	710	709	703	704	706	705	719	720	722	721	723	724	726	725	731	732	734	733	727	728	730	729	739	740	742	741	743	744	746	745	751	752	754	753	747	748	750	749	779	780	782	781	783	784	786	785	791	792	794	793	787	788	790	789	759	760	762	761	763	764	766	765	771	772	774	773	767	768	770	769	803	804	806	805	807	808	810	809	815	816	818	817	811	812	814	813	823	824	826	825	827	828	830	829	835	836	838	837	831	832	834	833	863	864	866	865	867	868	870	869	875	876	878	877	871	872	874	873	843	844	846	845	847	848	850	849	855	856	858	857	851	852	854	853	883	884	886	885	887	888	890	889	895	896	898	897	891	892	894	893	903	904	906	905	907	908	910	909	915	916	918	917	911	912	914	913	919	920	922	921	92	93	94	95	96	97	98	99	100	101	102	103	104	105	106	107	108	109	923	924	926	925	931	932	934	933	935	936	938	937	943	944	946	945	939	940	942	941	955	956	958	957	959	960	962	961	967	968	970	969	963	964	966	965	975	976	978	977	979	980	982	981	987	988	990	989	983	984	986	985	1015	1016	1018	1017	1019	1020	1022	1021	1027	1028	1030	1029	1023	1024	1026	1025	995	996	998	997	999	1000	1002	1001	1007	1008	1010	1009	1003	1004	1006	1005	1039	1040	1042	1041	1043	1044	1046	1045	1051	1052	1054	1053	1047	1048	1050	1049	1059	1060	1062	1061	1063	1064	1066	1065	1071	1072	1074	1073	1067	1068	1070	1069	1099	1100	1102	1101	1103	1104	1106	1105	1111	1112	1114	1113	1107	1108	1110	1109	1079	1080	1082	1081	1083	1084	1086	1085	1091	1092	1094	1093	1087	1088	1090	1089	1123	1124	1126	1125	1127	1128	1130	1129	1135	1136	1138	1137	1131	1132	1134	1133	1143	1144	1146	1145	1147	1148	1150	1149	1155	1156	1158	1157	1151	1152	1154	1153	1183	1184	1186	1185	1187	1188	1190	1189	1195	1196	1198	1197	1191	1192	1194	1193	1163	1164	1166	1165	1167	1168	1170	1169	1175	1176	1178	1177	1171	1172	1174	1173	1207	1208	1210	1209	1211	1212	1214	1213	1219	1220	1222	1221	1215	1216	1218	1217	1227	1228	1230	1229	1231	1232	1234	1233	1239	1240	1242	1241	1235	1236	1238	1237	1267	1268	1270	1269	1271	1272	1274	1273	1279	1280	1282	1281	1275	1276	1278	1277	1247	1248	1250	1249	1251	1252	1254	1253	1259	1260	1262	1261	1255	1256	1258	1257	1287	1288	1290	1289	1291	1292	1294	1293	1299	1300	1302	1301	1295	1296	1298	1297	1303	1304	1306	1305	118	119	120	121	122	123	124	125	126	127	128	129	130	131	132	133	134	135	1307	1308	1310	1309	1315	1316	1318	1317	1319	1320	1322	1321	1327	1328	1330	1329	1323	1324	1326	1325	1339	1340	1342	1341	1343	1344	1346	1345	1351	1352	1354	1353	1347	1348	1350	1349	1359	1360	1362	1361	1363	1364	1366	1365	1371	1372	1374	1373	1367	1368	1370	1369	1399	1400	1402	1401	1403	1404	1406	1405	1411	1412	1414	1413	1407	1408	1410	1409	1379	1380	1382	1381	1383	1384	1386	1385	1391	1392	1394	1393	1387	1388	1390	1389	1423	1424	1426	1425	1427	1428	1430	1429	1435	1436	1438	1437	1431	1432	1434	1433	1443	1444	1446	1445	1447	1448	1450	1449	1455	1456	1458	1457	1451	1452	1454	1453	1483	1484	1486	1485	1487	1488	1490	1489	1495	1496	1498	1497	1491	1492	1494	1493	1463	1464	1466	1465	1467	1468	1470	1469	1475	1476	1478	1477	1471	1472	1474	1473	1507	1508	1510	1509	1511	1512	1514	1513	1519	1520	1522	1521	1515	1516	1518	1517	1527	1528	1530	1529	1531	1532	1534	1533	1539	1540	1542	1541	1535	1536	1538	1537	1567	1568	1570	1569	1571	1572	1574	1573	1579	1580	1582	1581	1575	1576	1578	1577	1547	1548	1550	1549	1551	1552	1554	1553	1559	1560	1562	1561	1555	1556	1558	1557	1591	1592	1594	1593	1595	1596	1598	1597	1603	1604	1606	1605	1599	1600	1602	1601	1611	1612	1614	1613	1615	1616	1618	1617	1623	1624	1626	1625	1619	1620	1622	1621	1651	1652	1654	1653	1655	1656	1658	1657	1663	1664	1666	1665	1659	1660	1662	1661	1631	1632	1634	1633	1635	1636	1638	1637	1643	1644	1646	1645	1639	1640	1642	1641	1671	1672	1674	1673	1675	1676	1678	1677	1683	1684	1686	1685	1679	1680	1682	1681	1687	1688	1690	1689	144	145	146	147	148	149	150	151	152	153	154	155	156	157	158	159	160	161	1691	1692	1694	1693	1699	1700	1702	1701	1703	1704	1706	1705	1711	1712	1714	1713	1707	1708	1710	1709	1723	1724	1726	1725	1727	1728	1730	1729	1735	1736	1738	1737	1731	1732	1734	1733	1743	1744	1746	1745	1747	1748	1750	1749	1755	1756	1758	1757	1751	1752	1754	1753	1783	1784	1786	1785	1787	1788	1790	1789	1795	1796	1798	1797	1791	1792	1794	1793	1763	1764	1766	1765	1767	1768	1770	1769	1775	1776	1778	1777	1771	1772	1774	1773	1807	1808	1810	1809	1811	1812	1814	1813	1819	1820	1822	1821	1815	1816	1818	1817	1827	1828	1830	1829	1831	1832	1834	1833	1839	1840	1842	1841	1835	1836	1838	1837	1867	1868	1870	1869	1871	1872	1874	1873	1879	1880	1882	1881	1875	1876	1878	1877	1847	1848	1850	1849	1851	1852	1854	1853	1859	1860	1862	1861	1855	1856	1858	1857	1891	1892	1894	1893	1895	1896	1898	1897	1903	1904	1906	1905	1899	1900	1902	1901	1911	1912	1914	1913	1915	1916	1918	1917	1923	1924	1926	1925	1919	1920	1922	1921	1951	1952	1954	1953	1955	1956	1958	1957	1963	1964	1966	1965	1959	1960	1962	1961	1931	1932	1934	1933	1935	1936	1938	1937	1943	1944	1946	1945	1939	1940	1942	1941	1975	1976	1978	1977	1979	1980	1982	1981	1987	1988	1990	1989	1983	1984	1986	1985	1995	1996	1998	1997	1999	2000	2002	2001	2007	2008	2010	2009	2003	2004	2006	2005	2035	2036	2038	2037	2039	2040	2042	2041	2047	2048	2050	2049	2043	2044	2046	2045	2015	2016	2018	2017	2019	2020	2022	2021	2027	2028	2030	2029	2023	2024	2026	2025	2055	2056	2058	2057	2059	2060	2062	2061	2067	2068	2070	2069	2063	2064	2066	2065	2071	2072	2074	2073	170	171	172	173	174	175	176	177	178	179	180	181	182	183	184	185	186	187	2075	2076	2078	2077	2083	2084	2086	2085	2087	2088	2090	2089	2095	2096	2098	2097	2091	2092	2094	2093	2103	2104	2106	2105	2107	2108	2110	2109	2115	2116	2118	2117	2111	2112	2114	2113	2127	2128	2130	2129	2131	2132	2134	2133	2139	2140	2142	2141	2135	2136	2138	2137	2147	2148	2150	2149	2151	2152	2154	2153	2159	2160	2162	2161	2155	2156	2158	2157	2187	2188	2190	2189	2191	2192	2194	2193	2199	2200	2202	2201	2195	2196	2198	2197	2167	2168	2170	2169	2171	2172	2174	2173	2179	2180	2182	2181	2175	2176	2178	2177	2211	2212	2214	2213	2215	2216	2218	2217	2223	2224	2226	2225	2219	2220	2222	2221	2231	2232	2234	2233	2235	2236	2238	2237	2243	2244	2246	2245	2239	2240	2242	2241	2271	2272	2274	2273	2275	2276	2278	2277	2283	2284	2286	2285	2279	2280	2282	2281	2251	2252	2254	2253	2255	2256	2258	2257	2263	2264	2266	2265	2259	2260	2262	2261	2291	2292	2294	2293	2295	2296	2298	2297	2303	2304	2306	2305	2299	2300	2302	2301	2311	2312	2314	2313	2315	2316	2318	2317	2323	2324	2326	2325	2319	2320	2322	2321	2327	2328	2330	2329	196	197	198	199	200	201	202	203	204	205	206	207	208	209	210	211	212	213	2331	2332	2334	2333	2335	2336	2338	2337	2343	2344	2346	2345	2347	2348	2350	2349	2355	2356	2358	2357	2351	2352	2354	2353	2363	2364	2366	2365	2367	2368	2370	2369	2375	2376	2378	2377	2371	2372	2374	2373	2383	2384	2386	2385	2387	2388	2390	2389	2395	2396	2398	2397	2391	2392	2394	2393	2403	2404	2406	2405	2407	2408	2410	2409	2415	2416	2418	2417	2411	2412	2414	2413	2419	2420	2422	2421	2423	2424	2426	2425	222	223	224	225	226	227	228	229	230	231	232	233	234	235	236	237	238	239	240	2427	2428	2430	2429	2431	2432	2434	2433	2435	2436	2438	2437	2439	2440	2442	2441	2443	2444	2446	2445	2447	2448	2450	2449	247	248	249	250	251	252	253	254	255	256	257	258	259	260	261	262	263	264	265	266	267	268	269	270	271	272	273	274	275	276	277	278	279	280	281	282	283	284	285	286	287	288	289	290	291	292	293	294	295	296	297	298	299	300	301	302	303	304	305	306	307	308	309	310	311	312	313	314	315	316	317	318	319	320	321	322	323	324	325	326	327	328	329	330	331	332	333	334	335	336	337	338	339	340	341	342	343	344	345	346	347	348	349	350	351	352	353	354	355	356	357	358	359	360	361	362	363	364	365	366	367	368	369	370	371	372	373	374	375	376	377	378	379	380	381	382	383	384	385	386	387	388	389	390	391	392	393	394	395	396	397	398	399	400	401	402	403	404	405	406	407	408	409	410	411	412	413	414	415	416	417	418	419	420	421	422	423	424	425	426	427	428	429	430	431	432	433	434	435	436	437	438	439	440	441	442	443	444	445	446	447	448	449	450	451	452	453	454	455	456	457	458	459	460	461	462	463	464	465	466	467	468	469	470	471	472	473	474	475	476	477	478	479	480	481	482	483	484	485	486	487	488	489	490	491	492	493	494	495	496	497	498	499	500	501	502	503	504	505	506	507	508	509	510	511	512	513	514	515	516	517	518	519	520	521	522	523	524	525	526	527	528	529	530	531	532	533	534	535	536	537	538	539	540	541	542	543	544	545	546	</DataArray>
<DataArray type="Int32" Name="nodenumber" format="ascii">1	2	3	4	5	6	7	8	9	10	11	12	13	14	15	16	17	18	19	20	21	22	23	24	25	26	27	28	29	30	31	32	33	34	36	35	37	38	40	39	41	42	44	43	45	46	48	47	49	50	52	51	53	54	56	55	57	58	59	60	61	62	63	64	65	66	67	68	69	70	71	72	73	74	75	76	77	79	78	80	81	83	82	84	85	87	86	88	89	91	90	96	97	99	98	92	93	95	94	100	101	103	102	104	105	107	106	112	113	115	114	108	109	111	110	116	117	119	118	120	121	123	122	128	129	131	130	124	125	127	126	132	133	135	134	136	137	139	138	144	145	147	146	140	141	143	142	148	149	151	150	152	153	155	154	156	157	158	159	160	161	162	163	164	165	166	167	168	169	170	171	172	173	174	175	177	176	178	179	181	180	182	183	185	184	190	191	193	192	186	187	189	188	194	195	197	196	198	199	201	200	206	207	209	208	202	203	205	204	210	211	213	212	214	215	217	216	222	223	225	224	218	219	221	220	226	227	229	228	230	231	233	232	238	239	241	240	234	235	237	236	258	259	261	260	262	263	265	264	270	271	273	272	266	267	269	268	242	243	245	244	246	247	249	248	254	255	257	256	250	251	253	252	274	275	277	276	278	279	281	280	286	287	289	288	282	283	285	284	290	291	293	292	294	295	297	296	302	303	305	304	298	299	301	300	322	323	325	324	326	327	329	328	334	335	337	336	330	331	333	332	306	307	309	308	310	311	313	312	318	319	321	320	314	315	317	316	338	339	341	340	342	343	345	344	350	351	353	352	346	347	349	348	354	355	357	356	358	359	361	360	366	367	369	368	362	363	365	364	370	371	373	372	374	375	376	377	378	379	380	381	382	383	384	385	386	387	388	389	390	391	392	393	395	394	396	397	399	398	400	401	403	402	408	409	411	410	404	405	407	406	412	413	415	414	416	417	419	418	424	425	427	426	420	421	423	422	428	429	431	430	432	433	435	434	440	441	443	442	436	437	439	438	460	461	463	462	464	465	467	466	472	473	475	474	468	469	471	470	444	445	447	446	448	449	451	450	456	457	459	458	452	453	455	454	476	477	479	478	480	481	483	482	488	489	491	490	484	485	487	486	492	493	495	494	496	497	499	498	504	505	507	506	500	501	503	502	524	525	527	526	528	529	531	530	536	537	539	538	532	533	535	534	508	509	511	510	512	513	515	514	520	521	523	522	516	517	519	518	540	541	543	542	544	545	547	546	552	553	555	554	548	549	551	550	556	557	559	558	560	561	563	562	568	569	571	570	564	565	567	566	588	589	591	590	592	593	595	594	600	601	603	602	596	597	599	598	572	573	575	574	576	577	579	578	584	585	587	586	580	581	583	582	604	605	607	606	608	609	611	610	616	617	619	618	612	613	615	614	620	621	623	622	624	625	627	626	632	633	635	634	628	629	631	630	652	653	655	654	656	657	659	658	664	665	667	666	660	661	663	662	636	637	639	638	640	641	643	642	648	649	651	650	644	645	647	646	668	669	671	670	672	673	675	674	680	681	683	682	676	677	679	678	684	685	687	686	688	689	690	691	692	693	694	695	696	697	698	699	700	701	702	703	704	705	706	707	709	708	710	711	713	712	714	715	717	716	722	723	725	724	718	719	721	720	726	727	729	728	730	731	733	732	738	739	741	740	734	735	737	736	742	743	745	744	746	747	749	748	754	755	757	756	750	751	753	752	774	775	777	776	778	779	781	780	786	787	789	788	782	783	785	784	758	759	761	760	762	763	765	764	770	771	773	772	766	767	769	768	790	791	793	792	794	795	797	796	802	803	805	804	798	799	801	800	806	807	809	808	810	811	813	812	818	819	821	820	814	815	817	816	838	839	841	840	842	843	845	844	850	851	853	852	846	847	849	848	822	823	825	824	826	827	829	828	834	835	837	836	830	831	833	832	854	855	857	856	858	859	861	860	866	867	869	868	862	863	865	864	870	871	873	872	874	875	877	876	882	883	885	884	878	879	881	880	902	903	905	904	906	907	909	908	914	915	917	916	910	911	913	912	886	887	889	888	890	891	893	892	898	899	901	900	894	895	897	896	918	919	921	920	922	923	925	924	930	931	933	932	926	927	929	928	934	935	937	936	938	939	941	940	946	947	949	948	942	943	945	944	966	967	969	968	970	971	973	972	978	979	981	980	974	975	977	976	950	951	953	952	954	955	957	956	962	963	965	964	958	959	961	960	982	983	985	984	986	987	989	988	994	995	997	996	990	991	993	992	998	999	1001	1000	1002	1003	1004	1005	1006	1007	1008	1009	1010	1011	1012	1013	1014	1015	1016	1017	1018	1019	1020	1021	1023	1022	1024	1025	1027	1026	1028	1029	1031	1030	1036	1037	1039	1038	1032	1033	1035	1034	1040	1041	1043	1042	1044	1045	1047	1046	1052	1053	1055	1054	1048	1049	1051	1050	1056	1057	1059	1058	1060	1061	1063	1062	1068	1069	1071	1070	1064	1065	1067	1066	1088	1089	1091	1090	1092	1093	1095	1094	1100	1101	1103	1102	1096	1097	1099	1098	1072	1073	1075	1074	1076	1077	1079	1078	1084	1085	1087	1086	1080	1081	1083	1082	1104	1105	1107	1106	1108	1109	1111	1110	1116	1117	1119	1118	1112	1113	1115	1114	1120	1121	1123	1122	1124	1125	1127	1126	1132	1133	1135	1134	1128	1129	1131	1130	1152	1153	1155	1154	1156	1157	1159	1158	1164	1165	1167	1166	1160	1161	1163	1162	1136	1137	1139	1138	1140	1141	1143	1142	1148	1149	1151	1150	1144	1145	1147	1146	1168	1169	1171	1170	1172	1173	1175	1174	1180	1181	1183	1182	1176	1177	1179	1178	1184	1185	1187	1186	1188	1189	1191	1190	1196	1197	1199	1198	1192	1193	1195	1194	1216	1217	1219	1218	1220	1221	1223	1222	1228	1229	1231	1230	1224	1225	1227	1226	1200	1201	1203	1202	1204	1205	1207	1206	1212	1213	1215	1214	1208	1209	1211	1210	1232	1233	1235	1234	1236	1237	1239	1238	1244	1245	1247	1246	1240	1241	1243	1242	1248	1249	1251	1250	1252	1253	1255	1254	1260	1261	1263	1262	1256	1257	1259	1258	1280	1281	1283	1282	1284	1285	1287	1286	1292	1293	1295	1294	1288	1289	1291	1290	1264	1265	1267	1266	1268	1269	1271	1270	1276	1277	1279	1278	1272	1273	1275	1274	1296	1297	1299	1298	1300	1301	1303	1302	1308	1309	1311	1310	1304	1305	1307	1306	1312	1313	1315	1314	1316	1317	1318	1319	1320	1321	1322	1323	1324	1325	1326	1327	1328	1329	1330	1331	1332	1333	1334	1335	1337	1336	1338	1339	1341	1340	1342	1343	1345	1344	1350	1351	1353	1352	1346	1347	1349	1348	1354	1355	1357	1356	1358	1359	1361	1360	1366	1367	1369	1368	1362	1363	1365	1364	1370	1371	1373	1372	1374	1375	1377	1376	1382	1383	1385	1384	1378	1379	1381	1380	1386	1387	1389	1388	1390	1391	1393	1392	1398	1399	1401	1400	1394	1395	1397	1396	1418	1419	1421	1420	1422	1423	1425	1424	1430	1431	1433	1432	1426	1427	1429	1428	1402	1403	1405	1404	1406	1407	1409	1408	1414	1415	1417	1416	1410	1411	1413	1412	1434	1435	1437	1436	1438	1439	1441	1440	1446	1447	1449	1448	1442	1443	1445	1444	1450	1451	1453	1452	1454	1455	1457	1456	1462	1463	1465	1464	1458	1459	1461	1460	1482	1483	1485	1484	1486	1487	1489	1488	1494	1495	1497	1496	1490	1491	1493	1492	1466	1467	1469	1468	1470	1471	1473	1472	1478	1479	1481	1480	1474	1475	1477	1476	1498	1499	1501	1500	1502	1503	1505	1504	1510	1511	1513	1512	1506	1507	1509	1508	1514	1515	1517	1516	1518	1519	1521	1520	1526	1527	1529	1528	1522	1523	1525	1524	1530	1531	1533	1532	1534	1535	1536	1537	1538	1539	1540	1541	1542	1543	1544	1545	1546	1547	1548	1549	1550	1551	1552	1553	1555	1554	1556	1557	1559	1558	1560	1561	1563	1562	1564	1565	1567	1566	1572	1573	1575	1574	1568	1569	1571	1570	1576	1577	1579	1578	1580	1581	1583	1582	1588	1589	1591	1590	1584	1585	1587	1586	1592	1593	1595	1594	1596	1597	1599	1598	1604	1605	1607	1606	1600	1601	1603	1602	1608	1609	1611	1610	1612	1613	1615	1614	1620	1621	1623	1622	1616	1617	1619	1618	1624	1625	1627	1626	1628	1629	1631	1630	1632	1633	1634	1635	1636	1637	1638	1639	1640	1641	1642	1643	1644	1645	1646	1647	1648	1649	1650	1651	1652	1654	1653	1655	1656	1658	1657	1659	1660	1662	1661	1663	1664	1666	1665	1667	1668	1670	1669	1671	1672	1674	1673	1675	1676	1677	1678	1679	1680	1681	1682	1683	1684	1685	1686	1687	1688	1689	1690	1691	1692	1693	1694	1695	1696	1697	1698	1699	1700	1701	1702	1703	1704	1705	1706	1707	1708	1709	1710	1711	1712	1713	1714	1715	1716	1717	1718	1719	1720	1721	1722	1723	1724	1725	1726	1727	1728	1729	1730	1731	1732	1733	1734	1735	1736	1737	1738	1739	1740	1741	1742	1743	1744	1745	1746	1747	1748	1749	1750	1751	1752	1753	1754	1755	1756	1757	1758	1759	1760	1761	1762	1763	1764	1765	1766	1767	1768	1769	1770	1771	1772	1773	1774	1775	1776	1777	1778	1779	1780	1781	1782	1783	1784	1785	1786	1787	1788	1789	1790	1791	1792	1793	1794	1795	1796	1797	1798	1799	1800	1801	1802	1803	1804	1805	1806	1807	1808	1809	1810	1811	1812	1813	1814	1815	1816	1817	1818	1819	1820	1821	1822	1823	1824	1825	1826	1827	1828	1829	1830	1831	1832	1833	1834	1835	1836	1837	1838	1839	1840	1841	1842	1843	1844	1845	1846	1847	1848	1849	1850	1851	1852	1853	1854	1855	1856	1857	1858	1859	1860	1861	1862	1863	1864	1865	1866	1867	1868	1869	1870	1871	1872	1873	1874	1875	1876	1877	1878	1879	1880	1881	1882	1883	1884	1885	1886	1887	1888	1889	1890	1891	1892	1893	1894	1895	1896	1897	1898	1899	1900	1901	1902	1903	1904	1905	1906	1907	1908	1909	1910	1911	1912	1913	1914	1915	1916	1917	1918	1919	1920	1921	1922	1923	1924	1925	1926	1927	1928	1929	1930	1931	1932	1933	1934	1935	1936	1937	1938	1939	1940	1941	1942	1943	1944	1945	1946	1947	1948	1949	1950	1951	1952	1953	1954	1955	1956	1957	1958	1959	1960	1961	1962	1963	1964	1965	1966	1967	1968	1969	1970	1971	1972	1973	1974	</DataArray>